TITLE = "Visualization of the volumetric solution"
VARIABLES = "x""y""Density"
ZONE NODES= 22020, ELEMENTS= 26664, DATAPACKING=POINT, ZONETYPE=FEQUADRILATERAL
1.098913e-02	-2.568135e-02	1.901518e+00
1.547435e-02	-2.609169e-02	1.901518e+00
1.488134e-02	-2.249447e-02	1.901518e+00
1.763701e-02	-2.405024e-02	1.901518e+00
1.098913e-02	-2.230547e-02	1.901518e+00
1.886974e-02	-2.647651e-02	1.901518e+00
1.868221e-02	-2.144912e-02	1.901518e+00
1.369294e-02	-1.966461e-02	1.901518e+00
1.689792e-02	-1.830951e-02	1.901518e+00
2.050437e-02	-2.402695e-02	1.901518e+00
1.098913e-02	-1.869088e-02	1.901518e+00
2.192327e-02	-2.656812e-02	1.901518e+00
2.091609e-02	-1.851193e-02	1.901518e+00
2.225688e-02	-2.149119e-02	1.901518e+00
1.387178e-02	-1.645178e-02	1.901518e+00
2.007223e-02	-1.491965e-02	1.901518e+00
2.360131e-02	-2.414434e-02	1.901518e+00
1.657932e-02	-1.376904e-02	1.901518e+00
1.098913e-02	-1.479875e-02	1.901518e+00
2.484969e-02	-2.665250e-02	1.901518e+00
2.343827e-02	-1.593604e-02	1.901518e+00
2.434021e-02	-1.905531e-02	1.901518e+00
2.543339e-02	-2.181522e-02	1.901518e+00
1.351702e-02	-1.284598e-02	1.901518e+00
2.298497e-02	-1.227693e-02	1.901518e+00
1.971492e-02	-1.064071e-02	1.901518e+00
2.655860e-02	-2.435755e-02	1.901518e+00
1.505883e-02	-9.219454e-03	1.901518e+00
1.098913e-02	-1.068062e-02	1.901518e+00
2.767554e-02	-2.675927e-02	1.901518e+00
2.584490e-02	-1.397937e-02	1.901518e+00
2.653952e-02	-1.690227e-02	1.901518e+00
2.741011e-02	-1.965285e-02	1.901518e+00
2.837854e-02	-2.221741e-02	1.901518e+00
2.365004e-02	-8.139037e-03	1.901518e+00
2.540559e-02	-1.115292e-02	1.901518e+00
1.896781e-02	-6.658734e-03	1.901518e+00
2.938251e-02	-2.463168e-02	1.901518e+00
1.098913e-02	-6.524131e-03	1.901518e+00
3.039574e-02	-2.689556e-02	1.901518e+00
2.800831e-02	-1.236785e-02	1.901518e+00
2.867623e-02	-1.503358e-02	1.901518e+00
2.942975e-02	-1.767843e-02	1.901518e+00
1.479549e-02	-4.751226e-03	1.901518e+00
3.026970e-02	-2.022815e-02	1.901518e+00
3.116675e-02	-2.266541e-02	1.901518e+00
2.715141e-02	-9.764742e-03	1.901518e+00
2.186689e-02	-4.049808e-03	1.901518e+00
1.810251e-02	-2.498364e-03	1.901518e+00
3.208249e-02	-2.497837e-02	1.901518e+00
1.442291e-02	-3.732147e-04	1.901518e+00
1.098913e-02	-2.300759e-03	1.901518e+00
3.297275e-02	-2.709400e-02	1.901518e+00
2.705735e-02	-7.825369e-03	1.901518e+00
2.512374e-02	-4.344133e-03	1.901518e+00
3.071545e-02	-1.331443e-02	1.901518e+00
3.002826e-02	-1.080804e-02	1.901518e+00
3.141605e-02	-1.585116e-02	1.901518e+00
3.217434e-02	-1.835744e-02	1.901518e+00
3.298803e-02	-2.080813e-02	1.901518e+00
3.383737e-02	-2.319620e-02	1.901518e+00
2.647644e-02	-6.169400e-03	1.901518e+00
2.948005e-02	-8.463133e-03	1.901518e+00
2.416213e-02	-1.143311e-03	1.901518e+00
2.095362e-02	-9.509620e-05	1.901518e+00
1.759747e-02	1.772794e-03	1.901518e+00
3.467273e-02	-2.549622e-02	1.901518e+00
1.098913e-02	1.846082e-03	1.901518e+00
3.521604e-02	-2.741348e-02	1.901518e+00
2.893336e-02	-6.313039e-03	1.901518e+00
2.716019e-02	-1.642010e-03	1.901518e+00
2.808970e-02	-4.161422e-03	1.901518e+00
3.335588e-02	-1.409047e-02	1.901518e+00
3.268376e-02	-1.162047e-02	1.901518e+00
3.205682e-02	-9.187984e-03	1.901518e+00
3.406320e-02	-1.655607e-02	1.901518e+00
3.481830e-02	-1.899856e-02	1.901518e+00
1.438002e-02	3.631080e-03	1.901518e+00
3.562170e-02	-2.142436e-02	1.901518e+00
3.647820e-02	-2.388151e-02	1.901518e+00
3.143583e-02	-6.830692e-03	1.901518e+00
2.638215e-02	1.249327e-03	1.901518e+00
2.345216e-02	2.115144e-03	1.901518e+00
2.040487e-02	3.447624e-03	1.901518e+00
1.761674e-02	5.652498e-03	1.901518e+00
3.743321e-02	-2.661046e-02	1.901518e+00
1.098913e-02	5.758710e-03	1.901518e+00
3.074094e-02	-4.504526e-03	1.901518e+00
2.996501e-02	-2.071554e-03	1.901518e+00
2.919884e-02	5.511490e-04	1.901518e+00
3.524962e-02	-1.233672e-02	1.901518e+00
3.592613e-02	-1.477978e-02	1.901518e+00
3.459897e-02	-9.892776e-03	1.901518e+00
3.395471e-02	-7.469039e-03	1.901518e+00
3.663748e-02	-1.720912e-02	1.901518e+00
3.739025e-02	-1.962626e-02	1.901518e+00
1.424548e-02	7.412819e-03	1.901518e+00
3.819030e-02	-2.205282e-02	1.901518e+00
3.907015e-02	-2.453605e-02	1.901518e+00
3.328682e-02	-5.062456e-03	1.901518e+00
2.572959e-02	4.227579e-03	1.901518e+00
2.851071e-02	3.376146e-03	1.901518e+00
2.290793e-02	5.142731e-03	1.901518e+00
2.048834e-02	5.957687e-03	1.901518e+00
1.709810e-02	9.581780e-03	1.901518e+00
4.017030e-02	-2.690702e-02	1.901518e+00
1.098913e-02	9.349668e-03	1.901518e+00
3.258646e-02	-2.630084e-03	1.901518e+00
3.187704e-02	-1.183273e-04	1.901518e+00
3.120152e-02	2.519699e-03	1.901518e+00
1.954697e-02	7.907349e-03	1.901518e+00
3.776063e-02	-1.300320e-02	1.901518e+00
3.709893e-02	-1.056856e-02	1.901518e+00
3.844400e-02	-1.542743e-02	1.901518e+00
3.644532e-02	-8.132933e-03	1.901518e+00
3.578450e-02	-5.701074e-03	1.901518e+00
3.915712e-02	-1.783906e-02	1.901518e+00
3.990421e-02	-2.024750e-02	1.901518e+00
1.371955e-02	1.042761e-02	1.901518e+00
4.069221e-02	-2.267131e-02	1.901518e+00
4.153240e-02	-2.507522e-02	1.901518e+00
3.511122e-02	-3.263950e-03	1.901518e+00
2.498441e-02	7.219373e-03	1.901518e+00
2.790932e-02	6.287168e-03	1.901518e+00
3.057999e-02	5.356112e-03	1.901518e+00
2.216295e-02	7.895208e-03	1.901518e+00
2.066979e-02	1.027516e-02	1.901518e+00
1.524010e-02	1.284685e-02	1.901518e+00
4.236782e-02	-2.719710e-02	1.901518e+00
1.098913e-02	1.260999e-02	1.901518e+00
3.443634e-02	-8.014209e-04	1.901518e+00
3.378076e-02	1.711902e-03	1.901518e+00
3.316589e-02	4.291030e-03	1.901518e+00
4.023736e-02	-1.364356e-02	1.901518e+00
3.956751e-02	-1.122055e-02	1.901518e+00
3.890795e-02	-8.790833e-03	1.901518e+00
4.092585e-02	-1.605603e-02	1.901518e+00
3.824904e-02	-6.358547e-03	1.901518e+00
3.758641e-02	-3.923889e-03	1.901518e+00
4.163697e-02	-1.846124e-02	1.901518e+00
4.237083e-02	-2.087586e-02	1.901518e+00
1.879131e-02	1.285629e-02	1.901518e+00
4.311904e-02	-2.333272e-02	1.901518e+00
4.384011e-02	-2.596039e-02	1.901518e+00
3.692618e-02	-1.483078e-03	1.901518e+00
2.704406e-02	8.984590e-03	1.901518e+00
2.396579e-02	1.026563e-02	1.901518e+00
3.013157e-02	8.218107e-03	1.901518e+00
3.262232e-02	6.811259e-03	1.901518e+00
2.201307e-02	1.296185e-02	1.901518e+00
1.425678e-02	1.570210e-02	1.901518e+00
1.740466e-02	1.570210e-02	1.901518e+00
3.628329e-02	9.728979e-04	1.901518e+00
3.567642e-02	3.449007e-03	1.901518e+00
3.512677e-02	5.902454e-03	1.901518e+00
4.269245e-02	-1.427031e-02	1.901518e+00
4.201704e-02	-1.185631e-02	1.901518e+00
4.135221e-02	-9.435364e-03	1.901518e+00
4.069227e-02	-7.010509e-03	1.901518e+00
4.338213e-02	-1.667598e-02	1.901518e+00
4.003339e-02	-4.583562e-03	1.901518e+00
3.937810e-02	-2.155324e-03	1.901518e+00
4.408534e-02	-1.907998e-02	1.901518e+00
4.479264e-02	-2.150441e-02	1.901518e+00
2.040671e-02	1.570210e-02	1.901518e+00
1.098913e-02	1.570210e-02	1.901518e+00
4.547534e-02	-2.400202e-02	1.901518e+00
4.605353e-02	-2.663649e-02	1.901518e+00
3.873632e-02	2.756557e-04	1.901518e+00
2.886631e-02	1.104422e-02	1.901518e+00
2.643252e-02	1.139647e-02	1.901518e+00
3.258393e-02	8.912686e-03	1.901518e+00
3.467573e-02	8.285591e-03	1.901518e+00
2.484856e-02	1.324540e-02	1.901518e+00
2.328680e-02	1.570210e-02	1.901518e+00
3.812244e-02	2.712365e-03	1.901518e+00
3.755151e-02	5.146325e-03	1.901518e+00
3.151033e-02	1.095122e-02	1.901518e+00
3.703278e-02	7.562455e-03	1.901518e+00
4.445374e-02	-1.248201e-02	1.901518e+00
4.513129e-02	-1.488953e-02	1.901518e+00
4.378513e-02	-1.006823e-02	1.901518e+00
4.312282e-02	-7.650997e-03	1.901518e+00
4.246427e-02	-5.232258e-03	1.901518e+00
4.581799e-02	-1.728977e-02	1.901518e+00
4.181000e-02	-2.813391e-03	1.901518e+00
4.116543e-02	-3.952233e-04	1.901518e+00
4.650875e-02	-1.968885e-02	1.901518e+00
4.718961e-02	-2.210292e-02	1.901518e+00
4.783557e-02	-2.453506e-02	1.901518e+00
4.847137e-02	-2.689011e-02	1.901518e+00
4.054021e-02	2.023594e-03	1.901518e+00
3.030047e-02	1.342292e-02	1.901518e+00
2.757543e-02	1.345502e-02	1.901518e+00
3.409113e-02	1.061772e-02	1.901518e+00
3.649417e-02	9.938276e-03	1.901518e+00
2.609572e-02	1.570210e-02	1.901518e+00
3.994631e-02	4.445417e-03	1.901518e+00
3.939641e-02	6.874307e-03	1.901518e+00
3.320567e-02	1.331582e-02	1.901518e+00
3.888926e-02	9.306450e-03	1.901518e+00
4.687910e-02	-1.310189e-02	1.901518e+00
4.620878e-02	-1.069321e-02	1.901518e+00
4.755601e-02	-1.550416e-02	1.901518e+00
4.554444e-02	-8.281497e-03	1.901518e+00
4.488486e-02	-5.868885e-03	1.901518e+00
4.422992e-02	-3.456641e-03	1.901518e+00
4.823763e-02	-1.789772e-02	1.901518e+00
4.358205e-02	-1.045985e-03	1.901518e+00
4.294644e-02	1.362970e-03	1.901518e+00
4.891782e-02	-2.028408e-02	1.901518e+00
4.958589e-02	-2.265932e-02	1.901518e+00
5.023524e-02	-2.497595e-02	1.901518e+00
5.085804e-02	-2.711223e-02	1.901518e+00
4.233065e-02	3.772952e-03	1.901518e+00
3.152814e-02	1.570210e-02	1.901518e+00
2.884577e-02	1.570210e-02	1.901518e+00
3.590576e-02	1.223608e-02	1.901518e+00
3.836026e-02	1.168495e-02	1.901518e+00
4.174536e-02	6.192410e-03	1.901518e+00
4.121112e-02	8.647185e-03	1.901518e+00
3.414188e-02	1.570210e-02	1.901518e+00
3.547878e-02	1.415247e-02	1.901518e+00
4.078438e-02	1.116698e-02	1.901518e+00
4.929363e-02	-1.371888e-02	1.901518e+00
4.862311e-02	-1.131379e-02	1.901518e+00
4.795761e-02	-8.905533e-03	1.901518e+00
4.996883e-02	-1.611662e-02	1.901518e+00
4.729675e-02	-6.496616e-03	1.901518e+00
4.664046e-02	-4.088145e-03	1.901518e+00
4.598969e-02	-1.681213e-03	1.901518e+00
5.064664e-02	-1.850370e-02	1.901518e+00
4.534657e-02	7.232763e-04	1.901518e+00
4.471426e-02	3.125885e-03	1.901518e+00
5.132286e-02	-2.087901e-02	1.901518e+00
5.199103e-02	-2.323412e-02	1.901518e+00
5.262241e-02	-2.551789e-02	1.901518e+00
5.298466e-02	-2.743284e-02	1.901518e+00
4.409720e-02	5.528068e-03	1.901518e+00
3.770852e-02	1.378895e-02	1.901518e+00
4.013296e-02	1.345256e-02	1.901518e+00
4.350379e-02	7.935035e-03	1.901518e+00
4.297819e-02	1.040803e-02	1.901518e+00
3.670062e-02	1.570210e-02	1.901518e+00
4.280481e-02	1.302940e-02	1.901518e+00
5.169831e-02	-1.433491e-02	1.901518e+00
5.102811e-02	-1.193252e-02	1.901518e+00
5.036211e-02	-9.526403e-03	1.901518e+00
4.970017e-02	-7.119454e-03	1.901518e+00
5.237267e-02	-1.672938e-02	1.901518e+00
4.904233e-02	-4.712641e-03	1.901518e+00
4.838899e-02	-2.306639e-03	1.901518e+00
4.774082e-02	9.766927e-05	1.901518e+00
5.305145e-02	-1.911508e-02	1.901518e+00
4.709811e-02	2.500487e-03	1.901518e+00
4.646071e-02	4.901802e-03	1.901518e+00
5.373792e-02	-2.150237e-02	1.901518e+00
5.444354e-02	-2.393135e-02	1.901518e+00
5.520580e-02	-2.662738e-02	1.901518e+00
4.582906e-02	7.288247e-03	1.901518e+00
3.922767e-02	1.570210e-02	1.901518e+00
4.174390e-02	1.570210e-02	1.901518e+00
4.519735e-02	9.610284e-03	1.901518e+00
4.460128e-02	1.159978e-02	1.901518e+00
4.425802e-02	1.570210e-02	1.901518e+00
5.409369e-02	-1.495041e-02	1.901518e+00
5.342409e-02	-1.255060e-02	1.901518e+00
5.275812e-02	-1.014626e-02	1.901518e+00
5.209547e-02	-7.740556e-03	1.901518e+00
5.143616e-02	-5.334462e-03	1.901518e+00
5.476799e-02	-1.734251e-02	1.901518e+00
5.078048e-02	-2.928160e-03	1.901518e+00
5.012865e-02	-5.221621e-04	1.901518e+00
4.947991e-02	1.884234e-03	1.901518e+00
5.545052e-02	-1.973024e-02	1.901518e+00
4.883136e-02	4.295225e-03	1.901518e+00
4.817702e-02	6.714700e-03	1.901518e+00
5.615123e-02	-2.213130e-02	1.901518e+00
5.690621e-02	-2.458389e-02	1.901518e+00
5.787420e-02	-2.691405e-02	1.901518e+00
4.750737e-02	9.115402e-03	1.901518e+00
4.555098e-02	1.345992e-02	1.901518e+00
4.673187e-02	1.140720e-02	1.901518e+00
4.677197e-02	1.570210e-02	1.901518e+00
5.581086e-02	-1.316770e-02	1.901518e+00
5.647870e-02	-1.556416e-02	1.901518e+00
5.514594e-02	-1.076581e-02	1.901518e+00
5.448333e-02	-8.361600e-03	1.901518e+00
5.382304e-02	-5.956329e-03	1.901518e+00
5.316533e-02	-3.549902e-03	1.901518e+00
5.715183e-02	-1.795392e-02	1.901518e+00
5.251050e-02	-1.142555e-03	1.901518e+00
5.185799e-02	1.266046e-03	1.901518e+00
5.120498e-02	3.680893e-03	1.901518e+00
5.783631e-02	-2.034338e-02	1.901518e+00
5.054471e-02	6.115412e-03	1.901518e+00
4.986267e-02	8.594237e-03	1.901518e+00
5.854459e-02	-2.274406e-02	1.901518e+00
5.929267e-02	-2.511152e-02	1.901518e+00
6.003455e-02	-2.719659e-02	1.901518e+00
4.915510e-02	1.108844e-02	1.901518e+00
4.809711e-02	1.335558e-02	1.901518e+00
4.928592e-02	1.570210e-02	1.901518e+00
5.818785e-02	-1.378238e-02	1.901518e+00
5.752559e-02	-1.138438e-02	1.901518e+00
5.885249e-02	-1.617479e-02	1.901518e+00
5.686434e-02	-8.982792e-03	1.901518e+00
5.620406e-02	-6.579184e-03	1.901518e+00
5.554509e-02	-4.173555e-03	1.901518e+00
5.488784e-02	-1.766048e-03	1.901518e+00
5.952379e-02	-1.856442e-02	1.901518e+00
5.423232e-02	6.426512e-04	1.901518e+00
5.357691e-02	3.054835e-03	1.901518e+00
5.291709e-02	5.481351e-03	1.901518e+00
6.020880e-02	-2.096425e-02	1.901518e+00
5.224393e-02	7.945786e-03	1.901518e+00
5.153368e-02	1.052607e-02	1.901518e+00
6.090504e-02	-2.339645e-02	1.901518e+00
6.155211e-02	-2.597314e-02	1.901518e+00
5.085524e-02	1.311067e-02	1.901518e+00
6.377530e-02	-2.663861e-02	1.901518e+00
5.179988e-02	1.570210e-02	1.901518e+00
6.055512e-02	-1.439292e-02	1.901518e+00
5.989701e-02	-1.200045e-02	1.901518e+00
5.923876e-02	-9.603269e-03	1.901518e+00
6.121602e-02	-1.678133e-02	1.901518e+00
5.857993e-02	-7.202685e-03	1.901518e+00
5.792096e-02	-4.799055e-03	1.901518e+00
5.726237e-02	-2.392575e-03	1.901518e+00
5.660454e-02	1.530381e-05	1.901518e+00
6.188623e-02	-1.917358e-02	1.901518e+00
5.594708e-02	2.423620e-03	1.901518e+00
5.528806e-02	4.836853e-03	1.901518e+00
5.462424e-02	7.267111e-03	1.901518e+00
6.257059e-02	-2.158778e-02	1.901518e+00
5.395250e-02	9.723031e-03	1.901518e+00
5.328163e-02	1.207471e-02	1.901518e+00
6.324752e-02	-2.405706e-02	1.901518e+00
5.304835e-02	1.401270e-02	1.901518e+00
6.573042e-02	-2.459355e-02	1.901518e+00
6.621464e-02	-2.685346e-02	1.901518e+00
5.431383e-02	1.570210e-02	1.901518e+00
6.291319e-02	-1.499815e-02	1.901518e+00
6.226038e-02	-1.261256e-02	1.901518e+00
6.160671e-02	-1.022174e-02	1.901518e+00
6.095094e-02	-7.825875e-03	1.901518e+00
6.357021e-02	-1.738223e-02	1.901518e+00
6.029348e-02	-5.425575e-03	1.901518e+00
5.963500e-02	-3.021228e-03	1.901518e+00
5.897609e-02	-6.145057e-04	1.901518e+00
5.831700e-02	1.791785e-03	1.901518e+00
6.424244e-02	-1.977441e-02	1.901518e+00
5.765738e-02	4.197946e-03	1.901518e+00
5.699773e-02	6.612408e-03	1.901518e+00
5.634562e-02	9.047838e-03	1.901518e+00
6.495151e-02	-2.218687e-02	1.901518e+00
5.572922e-02	1.146714e-02	1.901518e+00
5.516818e-02	1.374826e-02	1.901518e+00
6.729804e-02	-2.273915e-02	1.901518e+00
6.834142e-02	-2.504118e-02	1.901518e+00
6.823094e-02	-2.729338e-02	1.901517e+00
5.682778e-02	1.570210e-02	1.901518e+00
6.461623e-02	-1.322040e-02	1.901518e+00
6.526208e-02	-1.559848e-02	1.901518e+00
6.396850e-02	-1.083733e-02	1.901518e+00
6.331722e-02	-8.447794e-03	1.901518e+00
6.266272e-02	-6.052184e-03	1.901518e+00
6.591104e-02	-1.797655e-02	1.901518e+00
6.200584e-02	-3.651115e-03	1.901518e+00
6.134729e-02	-1.246184e-03	1.901518e+00
6.068749e-02	1.159153e-03	1.901518e+00
6.002624e-02	3.562317e-03	1.901518e+00
6.657391e-02	-2.035902e-02	1.901518e+00
5.936284e-02	5.968167e-03	1.901518e+00
5.870124e-02	8.393468e-03	1.901518e+00
5.806613e-02	1.087247e-02	1.901518e+00
5.753811e-02	1.345147e-02	1.901518e+00
6.888193e-02	-2.091077e-02	1.901518e+00
6.947131e-02	-2.293796e-02	1.901518e+00
7.042774e-02	-2.683822e-02	1.901517e+00
5.934173e-02	1.570210e-02	1.901518e+00
6.632505e-02	-1.145058e-02	1.901518e+00
6.696607e-02	-1.382638e-02	1.901518e+00
6.760378e-02	-1.619835e-02	1.901518e+00
6.567918e-02	-9.068070e-03	1.901518e+00
6.502871e-02	-6.678194e-03	1.901518e+00
6.437463e-02	-4.281507e-03	1.901518e+00
6.824147e-02	-1.856730e-02	1.901518e+00
6.371779e-02	-1.879422e-03	1.901518e+00
6.305861e-02	5.248354e-04	1.901518e+00
6.239690e-02	2.927069e-03	1.901518e+00
6.173065e-02	5.327316e-03	1.901518e+00
6.105517e-02	7.736613e-03	1.901518e+00
6.037091e-02	1.017750e-02	1.901518e+00
5.971368e-02	1.276225e-02	1.901518e+00
7.145550e-02	-2.423096e-02	1.901517e+00
7.112981e-02	-2.167261e-02	1.901518e+00
7.055471e-02	-1.921053e-02	1.901518e+00
7.299919e-02	-2.669587e-02	1.901517e+00
6.119464e-02	1.397609e-02	1.901518e+00
6.803767e-02	-9.687331e-03	1.901518e+00
6.867779e-02	-1.206416e-02	1.901518e+00
6.931156e-02	-1.443728e-02	1.901518e+00
6.993865e-02	-1.681496e-02	1.901518e+00
6.739179e-02	-7.303370e-03	1.901518e+00
6.674118e-02	-4.911839e-03	1.901518e+00
6.608699e-02	-2.513812e-03	1.901518e+00
6.542976e-02	-1.118549e-04	1.901518e+00
6.476930e-02	2.290063e-03	1.901518e+00
6.410394e-02	4.689127e-03	1.901518e+00
6.342702e-02	7.089173e-03	1.901518e+00
6.272196e-02	9.501113e-03	1.901518e+00
6.196477e-02	1.188096e-02	1.901518e+00
7.336258e-02	-2.235736e-02	1.901518e+00
7.419213e-02	-2.453514e-02	1.901517e+00
6.185569e-02	1.570210e-02	1.901518e+00
7.284731e-02	-1.988376e-02	1.901518e+00
7.226460e-02	-1.745131e-02	1.901518e+00
7.555829e-02	-2.671102e-02	1.901517e+00
6.335842e-02	1.368446e-02	1.901518e+00
6.975260e-02	-7.927808e-03	1.901518e+00
7.039381e-02	-1.030695e-02	1.901518e+00
7.102806e-02	-1.268132e-02	1.901518e+00
7.165332e-02	-1.505812e-02	1.901518e+00
6.910577e-02	-5.541746e-03	1.901518e+00
6.845427e-02	-3.148705e-03	1.901518e+00
6.779974e-02	-7.507815e-04	1.901518e+00
6.714224e-02	1.649012e-03	1.901518e+00
6.648094e-02	4.048669e-03	1.901518e+00
6.581114e-02	6.449237e-03	1.901518e+00
6.511679e-02	8.864444e-03	1.901518e+00
6.435237e-02	1.133494e-02	1.901518e+00
7.515106e-02	-2.049286e-02	1.901518e+00
7.573813e-02	-2.283063e-02	1.901517e+00
7.640733e-02	-2.476652e-02	1.901517e+00
6.436964e-02	1.570210e-02	1.901518e+00
7.458680e-02	-1.808506e-02	1.901518e+00
7.399195e-02	-1.568496e-02	1.901518e+00
7.829184e-02	-2.623715e-02	1.901516e+00
6.603408e-02	1.338266e-02	1.901518e+00
7.211201e-02	-8.551657e-03	1.901519e+00
7.146879e-02	-6.170421e-03	1.901518e+00
7.274873e-02	-1.092790e-02	1.901519e+00
7.337670e-02	-1.330275e-02	1.901519e+00
7.082035e-02	-3.783698e-03	1.901518e+00
7.016678e-02	-1.390681e-03	1.901518e+00
6.951293e-02	1.004194e-03	1.901518e+00
6.885742e-02	3.400869e-03	1.901518e+00
6.820118e-02	5.801508e-03	1.901518e+00
6.753164e-02	8.206186e-03	1.901517e+00
6.682735e-02	1.065613e-02	1.901517e+00
7.691533e-02	-1.870921e-02	1.901518e+00
7.748822e-02	-2.111513e-02	1.901518e+00
7.803369e-02	-2.358777e-02	1.901517e+00
6.688359e-02	1.570210e-02	1.901517e+00
7.633017e-02	-1.631145e-02	1.901519e+00
7.572467e-02	-1.392621e-02	1.901519e+00
8.023238e-02	-2.428548e-02	1.901516e+00
8.094807e-02	-2.664380e-02	1.901516e+00
6.865506e-02	1.223424e-02	1.901517e+00
6.825286e-02	1.418075e-02	1.901517e+00
7.447129e-02	-9.174738e-03	1.901519e+00
7.383109e-02	-6.797009e-03	1.901519e+00
7.318511e-02	-4.416069e-03	1.901518e+00
7.510350e-02	-1.154976e-02	1.901519e+00
7.253448e-02	-2.032673e-03	1.901518e+00
7.187626e-02	3.596797e-04	1.901518e+00
7.122667e-02	2.746786e-03	1.901518e+00
7.058477e-02	5.149431e-03	1.901517e+00
6.994237e-02	7.539053e-03	1.901517e+00
6.929531e-02	9.921940e-03	1.901517e+00
7.924484e-02	-1.933707e-02	1.901518e+00
7.867028e-02	-1.693502e-02	1.901519e+00
7.978325e-02	-2.177852e-02	1.901517e+00
6.939754e-02	1.570210e-02	1.901517e+00
7.807358e-02	-1.454869e-02	1.901519e+00
7.745936e-02	-1.217090e-02	1.901519e+00
8.270053e-02	-2.467853e-02	1.901516e+00
8.211715e-02	-2.234057e-02	1.901517e+00
8.347852e-02	-2.687372e-02	1.901514e+00
7.108478e-02	1.164619e-02	1.901517e+00
7.041736e-02	1.383270e-02	1.901517e+00
7.619440e-02	-7.420773e-03	1.901519e+00
7.683187e-02	-9.796146e-03	1.901519e+00
7.554972e-02	-5.044097e-03	1.901519e+00
7.490015e-02	-2.667849e-03	1.901518e+00
7.424664e-02	-2.960285e-04	1.901518e+00
7.357301e-02	2.097043e-03	1.901518e+00
7.295781e-02	4.502333e-03	1.901517e+00
7.232754e-02	6.878174e-03	1.901517e+00
7.171416e-02	9.284522e-03	1.901517e+00
8.158038e-02	-1.994732e-02	1.901518e+00
8.101443e-02	-1.755246e-02	1.901519e+00
8.042499e-02	-1.516783e-02	1.901520e+00
7.191149e-02	1.570210e-02	1.901517e+00
7.981730e-02	-1.278965e-02	1.901520e+00
7.919476e-02	-1.041462e-02	1.901520e+00
8.448583e-02	-2.285139e-02	1.901516e+00
8.505015e-02	-2.502544e-02	1.901515e+00
8.392623e-02	-2.052960e-02	1.901518e+00
8.588259e-02	-2.701415e-02	1.901513e+00
7.355594e-02	1.111122e-02	1.901517e+00
7.289114e-02	1.355287e-02	1.901517e+00
7.856007e-02	-8.040629e-03	1.901520e+00
7.791621e-02	-5.667034e-03	1.901519e+00
7.726713e-02	-3.294833e-03	1.901519e+00
7.661736e-02	-9.263938e-04	1.901518e+00
7.597331e-02	1.426192e-03	1.901518e+00
7.530065e-02	3.879289e-03	1.901517e+00
7.469908e-02	6.208693e-03	1.901517e+00
7.409124e-02	8.610750e-03	1.901517e+00
8.336185e-02	-1.816160e-02	1.901519e+00
8.277835e-02	-1.578355e-02	1.901520e+00
8.217701e-02	-1.340584e-02	1.901521e+00
7.442545e-02	1.570210e-02	1.901517e+00
8.155988e-02	-1.102968e-02	1.901521e+00
8.092851e-02	-8.655562e-03	1.901520e+00
8.628380e-02	-2.113509e-02	1.901517e+00
8.682169e-02	-2.343556e-02	1.901515e+00
8.711107e-02	-2.537301e-02	1.901513e+00
8.571405e-02	-1.877470e-02	1.901519e+00
8.831223e-02	-2.687287e-02	1.901511e+00
7.586760e-02	1.031363e-02	1.901516e+00
7.564317e-02	1.315022e-02	1.901516e+00
8.028502e-02	-6.283993e-03	1.901520e+00
7.963353e-02	-3.915296e-03	1.901519e+00
7.898008e-02	-1.550692e-03	1.901519e+00
7.833095e-02	8.058138e-04	1.901518e+00
7.769201e-02	3.177075e-03	1.901517e+00
7.699919e-02	5.586872e-03	1.901517e+00
7.642468e-02	7.898273e-03	1.901517e+00
8.513254e-02	-1.640008e-02	1.901521e+00
8.453668e-02	-1.402181e-02	1.901522e+00
8.392571e-02	-1.164278e-02	1.901522e+00
7.693940e-02	1.570210e-02	1.901516e+00
8.329928e-02	-9.265458e-03	1.901522e+00
8.265749e-02	-6.893043e-03	1.901521e+00
8.807798e-02	-1.941765e-02	1.901519e+00
8.866854e-02	-2.185365e-02	1.901516e+00
8.928223e-02	-2.452652e-02	1.901513e+00
8.748956e-02	-1.702576e-02	1.901521e+00
9.065091e-02	-2.672536e-02	1.901509e+00
7.811659e-02	9.519051e-03	1.901516e+00
7.752156e-02	1.158733e-02	1.901516e+00
7.838206e-02	1.349863e-02	1.901516e+00
8.200331e-02	-4.526938e-03	1.901520e+00
8.134395e-02	-2.166189e-03	1.901519e+00
8.068866e-02	1.895941e-04	1.901518e+00
8.004228e-02	2.545482e-03	1.901517e+00
7.939670e-02	4.893911e-03	1.901517e+00
7.870058e-02	7.279082e-03	1.901516e+00
8.689521e-02	-1.464201e-02	1.901523e+00
8.628972e-02	-1.225779e-02	1.901523e+00
8.567065e-02	-9.872754e-03	1.901523e+00
7.945335e-02	1.570210e-02	1.901516e+00
8.503442e-02	-7.492908e-03	1.901522e+00
8.437954e-02	-5.124684e-03	1.901521e+00
8.984931e-02	-1.765924e-02	1.901522e+00
9.044779e-02	-2.005830e-02	1.901519e+00
9.110332e-02	-2.251452e-02	1.901515e+00
9.187923e-02	-2.469629e-02	1.901510e+00
8.925323e-02	-1.526926e-02	1.901524e+00
9.318902e-02	-2.675586e-02	1.901505e+00
8.036878e-02	9.009495e-03	1.901515e+00
7.967140e-02	1.128853e-02	1.901515e+00
8.121128e-02	1.329980e-02	1.901515e+00
8.371242e-02	-2.768705e-03	1.901520e+00
8.304701e-02	-4.185272e-04	1.901519e+00
8.239502e-02	1.930131e-03	1.901517e+00
8.175131e-02	4.274593e-03	1.901516e+00
8.109842e-02	6.617342e-03	1.901516e+00
8.864990e-02	-1.288021e-02	1.901525e+00
8.803889e-02	-1.048379e-02	1.901525e+00
8.741528e-02	-8.086919e-03	1.901525e+00
8.196730e-02	1.570210e-02	1.901515e+00
8.676780e-02	-5.703288e-03	1.901523e+00
8.609231e-02	-3.346206e-03	1.901521e+00
9.161233e-02	-1.590191e-02	1.901526e+00
9.220258e-02	-1.829357e-02	1.901522e+00
9.282549e-02	-2.069967e-02	1.901517e+00
9.340430e-02	-2.295640e-02	1.901512e+00
9.405629e-02	-2.488139e-02	1.901507e+00
9.100886e-02	-1.351502e-02	1.901528e+00
9.589597e-02	-2.629662e-02	1.901500e+00
8.280039e-02	8.356780e-03	1.901515e+00
8.201272e-02	1.080554e-02	1.901514e+00
8.333248e-02	1.412968e-02	1.901514e+00
8.540857e-02	-1.010254e-03	1.901520e+00
8.474511e-02	1.324868e-03	1.901518e+00
8.410806e-02	3.661787e-03	1.901516e+00
8.347113e-02	6.003627e-03	1.901515e+00
9.039917e-02	-1.110910e-02	1.901528e+00
8.979234e-02	-8.687235e-03	1.901528e+00
8.917145e-02	-6.268058e-03	1.901526e+00
8.371724e-02	1.231477e-02	1.901513e+00
8.448126e-02	1.570210e-02	1.901513e+00
8.850271e-02	-3.881536e-03	1.901523e+00
8.778091e-02	-1.558859e-03	1.901521e+00
9.397790e-02	-1.653607e-02	1.901528e+00
9.337868e-02	-1.416241e-02	1.901531e+00
9.457481e-02	-1.896554e-02	1.901522e+00
9.513491e-02	-2.130900e-02	1.901515e+00
9.566369e-02	-2.372658e-02	1.901508e+00
9.275866e-02	-1.175918e-02	1.901533e+00
9.850722e-02	-2.664667e-02	1.901489e+00
8.451058e-02	1.006200e-02	1.901513e+00
8.520868e-02	7.728105e-03	1.901514e+00
8.549962e-02	1.386308e-02	1.901512e+00
8.708460e-02	7.380029e-04	1.901519e+00
8.645262e-02	3.045628e-03	1.901516e+00
8.584949e-02	5.378382e-03	1.901515e+00
9.214680e-02	-9.317407e-03	1.901532e+00
9.157069e-02	-6.846662e-03	1.901529e+00
9.096251e-02	-4.383164e-03	1.901526e+00
9.783181e-02	-2.445931e-02	1.901500e+00
8.627671e-02	1.176198e-02	1.901512e+00
8.699521e-02	1.570210e-02	1.901511e+00
9.021796e-02	-2.013220e-03	1.901523e+00
8.939238e-02	2.270743e-04	1.901520e+00
9.636366e-02	-1.719242e-02	1.901529e+00
9.578516e-02	-1.481598e-02	1.901535e+00
9.514439e-02	-1.243208e-02	1.901538e+00
9.692400e-02	-1.961069e-02	1.901520e+00
9.747285e-02	-2.201041e-02	1.901510e+00
9.448625e-02	-9.997402e-03	1.901538e+00
9.995221e-02	-2.486438e-02	1.901490e+00
1.010063e-01	-2.662675e-02	1.901478e+00
8.698029e-02	9.480477e-03	1.901512e+00
8.762878e-02	7.096093e-03	1.901512e+00
8.798892e-02	1.359130e-02	1.901510e+00
8.874979e-02	2.425023e-03	1.901517e+00
8.822763e-02	4.714112e-03	1.901514e+00
9.389787e-02	-7.497988e-03	1.901535e+00
9.344663e-02	-4.905932e-03	1.901530e+00
9.277719e-02	-2.429967e-03	1.901525e+00
9.989250e-02	-2.272818e-02	1.901502e+00
8.879381e-02	1.135300e-02	1.901509e+00
8.950916e-02	1.570210e-02	1.901509e+00
9.181791e-02	2.139601e-05	1.901521e+00
9.078162e-02	1.884522e-03	1.901517e+00
9.816151e-02	-1.545105e-02	1.901541e+00
9.869980e-02	-1.785746e-02	1.901530e+00
9.763446e-02	-1.312722e-02	1.901545e+00
9.683570e-02	-1.069990e-02	1.901545e+00
9.932609e-02	-2.027207e-02	1.901518e+00
9.615417e-02	-8.264399e-03	1.901543e+00
1.024310e-01	-2.385609e-02	1.901485e+00
1.034136e-01	-2.670344e-02	1.901460e+00
8.944030e-02	8.898639e-03	1.901510e+00
9.004474e-02	6.366961e-03	1.901511e+00
9.050765e-02	1.328710e-02	1.901506e+00
9.063436e-02	3.902227e-03	1.901514e+00
9.557482e-02	-5.741521e-03	1.901538e+00
9.536998e-02	-3.043101e-03	1.901531e+00
9.424799e-02	-2.115749e-04	1.901523e+00
1.017482e-01	-2.102082e-02	1.901511e+00
9.128412e-02	1.086731e-02	1.901506e+00
9.202311e-02	1.570210e-02	1.901504e+00
9.297414e-02	2.616493e-03	1.901516e+00
1.002039e-01	-1.380308e-02	1.901556e+00
1.002135e-01	-1.629616e-02	1.901544e+00
1.011552e-01	-1.831724e-02	1.901531e+00
9.915340e-02	-1.136163e-02	1.901555e+00
9.843271e-02	-8.964785e-03	1.901553e+00
9.776693e-02	-6.656683e-03	1.901547e+00
1.046998e-01	-2.500184e-02	1.901464e+00
1.037057e-01	-2.152614e-02	1.901498e+00
1.058661e-01	-2.688062e-02	1.901437e+00
9.182536e-02	8.182787e-03	1.901507e+00
9.244230e-02	5.420512e-03	1.901510e+00
9.323633e-02	1.286597e-02	1.901501e+00
9.715736e-02	-4.652823e-03	1.901540e+00
9.698682e-02	-4.226763e-04	1.901527e+00
9.587212e-02	2.238017e-03	1.901517e+00
1.037619e-01	-1.883924e-02	1.901529e+00
1.051244e-01	-2.302429e-02	1.901479e+00
9.356659e-02	1.008818e-02	1.901502e+00
9.453706e-02	1.570210e-02	1.901499e+00
9.488511e-02	4.699401e-03	1.901509e+00
9.815934e-02	-2.790389e-03	1.901538e+00
1.026137e-01	-1.597452e-02	1.901557e+00
1.011783e-01	-1.155825e-02	1.901569e+00
1.007167e-01	-9.525368e-03	1.901567e+00
1.000088e-01	-7.259353e-03	1.901560e+00
9.922828e-02	-5.014440e-03	1.901550e+00
1.068835e-01	-2.474966e-02	1.901447e+00
1.057962e-01	-2.061801e-02	1.901508e+00
1.082932e-01	-2.673958e-02	1.901407e+00
9.421032e-02	7.392837e-03	1.901504e+00
9.595734e-02	1.337037e-02	1.901494e+00
9.515396e-02	1.135131e-02	1.901496e+00
9.963910e-02	-7.192048e-04	1.901533e+00
9.871955e-02	1.996645e-03	1.901518e+00
9.740678e-02	4.258070e-03	1.901506e+00
1.029385e-01	-1.284414e-02	1.901578e+00
1.049237e-01	-1.672166e-02	1.901560e+00
1.075988e-01	-2.244102e-02	1.901473e+00
1.063864e-01	-1.826902e-02	1.901543e+00
9.590763e-02	9.274274e-03	1.901496e+00
9.705102e-02	1.570210e-02	1.901490e+00
9.662128e-02	6.783237e-03	1.901499e+00
1.006178e-01	-3.124731e-03	1.901549e+00
1.050793e-01	-1.426999e-02	1.901589e+00
1.029455e-01	-1.023065e-02	1.901584e+00
1.023099e-01	-7.915829e-03	1.901578e+00
1.015176e-01	-5.515478e-03	1.901565e+00
1.093115e-01	-2.437717e-02	1.901421e+00
1.082435e-01	-1.999201e-02	1.901518e+00
1.107969e-01	-2.662965e-02	1.901358e+00
9.853025e-02	1.334730e-02	1.901484e+00
9.737805e-02	1.116480e-02	1.901489e+00
1.021335e-01	-1.207809e-03	1.901542e+00
1.012924e-01	1.186146e-03	1.901522e+00
9.946012e-02	4.112670e-03	1.901502e+00
9.902545e-02	6.243505e-03	1.901493e+00
1.054096e-01	-1.120903e-02	1.901609e+00
1.070664e-01	-1.581775e-02	1.901591e+00
1.101030e-01	-2.186839e-02	1.901471e+00
1.088620e-01	-1.748544e-02	1.901575e+00
9.828715e-02	8.821733e-03	1.901488e+00
9.956497e-02	1.570210e-02	1.901479e+00
1.030242e-01	-3.611325e-03	1.901565e+00
1.007780e-01	3.115045e-03	1.901509e+00
1.075174e-01	-1.319248e-02	1.901633e+00
1.046495e-01	-8.616049e-03	1.901602e+00
1.038690e-01	-6.087857e-03	1.901587e+00
1.121089e-01	-2.386077e-02	1.901388e+00
1.106630e-01	-1.927054e-02	1.901545e+00
1.134061e-01	-2.657663e-02	1.901277e+00
1.009080e-01	1.350508e-02	1.901469e+00
1.000599e-01	1.099466e-02	1.901476e+00
1.045500e-01	-1.664353e-03	1.901558e+00
1.036779e-01	7.607952e-04	1.901528e+00
1.027624e-01	3.002205e-03	1.901505e+00
1.015805e-01	5.285692e-03	1.901492e+00
1.008534e-01	8.101284e-03	1.901478e+00
1.078835e-01	-1.096916e-02	1.901650e+00
1.069576e-01	-9.051846e-03	1.901640e+00
1.094795e-01	-1.489929e-02	1.901641e+00
1.124166e-01	-2.106344e-02	1.901491e+00
1.112898e-01	-1.671155e-02	1.901624e+00
1.020789e-01	1.570210e-02	1.901462e+00
1.054109e-01	-4.108644e-03	1.901590e+00
1.100739e-01	-1.205794e-02	1.901693e+00
1.094199e-01	-9.509660e-03	1.901690e+00
1.062160e-01	-6.615686e-03	1.901620e+00
1.148538e-01	-2.433322e-02	1.901315e+00
1.140480e-01	-2.238875e-02	1.901420e+00
1.130349e-01	-1.849966e-02	1.901583e+00
1.159573e-01	-2.664166e-02	1.901167e+00
1.033456e-01	1.364771e-02	1.901450e+00
1.022533e-01	1.193765e-02	1.901460e+00